<?xml version="1.0"?>
<VTKFile type="PolyData" version="0.1" byte_order="LittleEndian" header_type="UInt32" compressor="vtkZLibDataCompressor">
  <PolyData>
    <Piece NumberOfPoints="64" NumberOfVerts="0" NumberOfLines="0" NumberOfStrips="0" NumberOfPolys="128">
      <PointData Scalars="Scalars_">
        <DataArray type="Float32" Name="Scalars_" format="ascii" RangeMin="1" RangeMax="1">
          1 1 1 1 1 1
          1 1 1 1 1 1
          1 1 1 1 1 1
          1 1 1 1 1 1
          1 1 1 1 1 1
          1 1 1 1 1 1
          1 1 1 1 1 1
          1 1 1 1 1 1
          1 1 1 1 1 1
          1 1 1 1 1 1
          1 1 1 1 1 1
          1 1 1 1 1 1
          1 1 1 1 1 1
          1 1 1 1 1 1
          1 1 1 1 1 1
          1 1 1 1 1 1
          1 1 1 1 1 1
          1 1 1 1 1 1
          1 1 1 1 1 1
          1 1 1 1 1 1
          1 1 1 1 1 1
          1 1
        </DataArray>
      </PointData>
      <CellData Scalars="Colors">
        <DataArray type="UInt8" Name="Colors" NumberOfComponents="3" format="ascii" RangeMin="176.6691823720255" RangeMax="176.6691823720255">
          102 102 102 102 102 102
          102 102 102 102 102 102
          102 102 102 102 102 102
          102 102 102 102 102 102
          102 102 102 102 102 102
          102 102 102 102 102 102
          102 102 102 102 102 102
          102 102 102 102 102 102
          102 102 102 102 102 102
          102 102 102 102 102 102
          102 102 102 102 102 102
          102 102 102 102 102 102
          102 102 102 102 102 102
          102 102 102 102 102 102
          102 102 102 102 102 102
          102 102 102 102 102 102
          102 102 102 102 102 102
          102 102 102 102 102 102
          102 102 102 102 102 102
          102 102 102 102 102 102
          102 102 102 102 102 102
          102 102 102 102 102 102
          102 102 102 102 102 102
          102 102 102 102 102 102
          102 102 102 102 102 102
          102 102 102 102 102 102
          102 102 102 102 102 102
          102 102 102 102 102 102
          102 102 102 102 102 102
          102 102 102 102 102 102
          102 102 102 102 102 102
          102 102 102 102 102 102
          102 102 102 102 102 102
          102 102 102 102 102 102
          102 102 102 102 102 102
          102 102 102 102 102 102
          102 102 102 102 102 102
          102 102 102 102 102 102
          102 102 102 102 102 102
          102 102 102 102 102 102
          102 102 102 102 102 102
          102 102 102 102 102 102
          102 102 102 102 102 102
          102 102 102 102 102 102
          102 102 102 102 102 102
          102 102 102 102 102 102
          102 102 102 102 102 102
          102 102 102 102 102 102
          102 102 102 102 102 102
          102 102 102 102 102 102
          102 102 102 102 102 102
          102 102 102 102 102 102
          102 102 102 102 102 102
          102 102 102 102 102 102
          102 102 102 102 102 102
          102 102 102 102 102 102
          102 102 102 102 102 102
          102 102 102 102 102 102
          102 102 102 102 102 102
          102 102 102 102 102 102
          102 102 102 102 102 102
          102 102 102 102 102 102
          102 102 102 102 102 102
          102 102 102 102 102 102
          <InformationKey name="L2_NORM_RANGE" location="vtkDataArray" length="2">
            <Value index="0">
              176.66918237
            </Value>
            <Value index="1">
              176.66918237
            </Value>
          </InformationKey>
        </DataArray>
      </CellData>
      <Points>
        <DataArray type="Float32" Name="Points" NumberOfComponents="3" format="ascii" RangeMin="0.029750999063253403" RangeMax="0.10206432539026923">
          0.029750999063253403 0 0 0.027486339211463928 0.011385214515030384 0
          0.02933409810066223 0.012150580994784832 0 0.03175099939107895 0 0
          0.029750999063253403 0 0.09700000286102295 0.03175099939107895 0 0.09700000286102295
          0.02933409810066223 0.012150580994784832 0.09700000286102295 0.027486339211463928 0.011385214515030384 0.09700000286102295
          0.021037133410573006 0.021037133410573006 0 0.02245134674012661 0.02245134674012661 0
          0.02245134674012661 0.02245134674012661 0.09700000286102295 0.021037133410573006 0.021037133410573006 0.09700000286102295
          0.011385214515030384 0.027486339211463928 0 0.012150580994784832 0.02933409810066223 0
          0.012150580994784832 0.02933409810066223 0.09700000286102295 0.011385214515030384 0.027486339211463928 0.09700000286102295
          1.8217232308778375e-18 0.029750999063253403 0 1.9441879409517726e-18 0.03175099939107895 0
          1.9441879409517726e-18 0.03175099939107895 0.09700000286102295 1.8217232308778375e-18 0.029750999063253403 0.09700000286102295
          -0.011385214515030384 0.027486339211463928 0 -0.012150580994784832 0.02933409810066223 0
          -0.012150580994784832 0.02933409810066223 0.09700000286102295 -0.011385214515030384 0.027486339211463928 0.09700000286102295
          -0.021037133410573006 0.021037133410573006 0 -0.02245134674012661 0.02245134674012661 0
          -0.02245134674012661 0.02245134674012661 0.09700000286102295 -0.021037133410573006 0.021037133410573006 0.09700000286102295
          -0.027486339211463928 0.011385214515030384 0 -0.02933409810066223 0.012150580994784832 0
          -0.02933409810066223 0.012150580994784832 0.09700000286102295 -0.027486339211463928 0.011385214515030384 0.09700000286102295
          -0.029750999063253403 3.643446461755675e-18 0 -0.03175099939107895 3.888375881903545e-18 0
          -0.03175099939107895 3.888375881903545e-18 0.09700000286102295 -0.029750999063253403 3.643446461755675e-18 0.09700000286102295
          -0.027486339211463928 -0.011385214515030384 0 -0.02933409810066223 -0.012150580994784832 0
          -0.02933409810066223 -0.012150580994784832 0.09700000286102295 -0.027486339211463928 -0.011385214515030384 0.09700000286102295
          -0.021037133410573006 -0.021037133410573006 0 -0.02245134674012661 -0.02245134674012661 0
          -0.02245134674012661 -0.02245134674012661 0.09700000286102295 -0.021037133410573006 -0.021037133410573006 0.09700000286102295
          -0.011385214515030384 -0.027486339211463928 0 -0.012150580994784832 -0.02933409810066223 0
          -0.012150580994784832 -0.02933409810066223 0.09700000286102295 -0.011385214515030384 -0.027486339211463928 0.09700000286102295
          -5.4651698994286656e-18 -0.029750999063253403 0 -5.832564236445624e-18 -0.03175099939107895 0
          -5.832564236445624e-18 -0.03175099939107895 0.09700000286102295 -5.4651698994286656e-18 -0.029750999063253403 0.09700000286102295
          0.011385214515030384 -0.027486339211463928 0 0.012150580994784832 -0.02933409810066223 0
          0.012150580994784832 -0.02933409810066223 0.09700000286102295 0.011385214515030384 -0.027486339211463928 0.09700000286102295
          0.021037133410573006 -0.021037133410573006 0 0.02245134674012661 -0.02245134674012661 0
          0.02245134674012661 -0.02245134674012661 0.09700000286102295 0.021037133410573006 -0.021037133410573006 0.09700000286102295
          0.027486339211463928 -0.011385214515030384 0 0.02933409810066223 -0.012150580994784832 0
          0.02933409810066223 -0.012150580994784832 0.09700000286102295 0.027486339211463928 -0.011385214515030384 0.09700000286102295
          <InformationKey name="L2_NORM_RANGE" location="vtkDataArray" length="2">
            <Value index="0">
              0.029750999063
            </Value>
            <Value index="1">
              0.10206432539
            </Value>
          </InformationKey>
        </DataArray>
      </Points>
      <Verts>
        <DataArray type="Int64" Name="connectivity" format="ascii" RangeMin="1e+299" RangeMax="-1e+299">
        </DataArray>
        <DataArray type="Int64" Name="offsets" format="ascii" RangeMin="1e+299" RangeMax="-1e+299">
        </DataArray>
      </Verts>
      <Lines>
        <DataArray type="Int64" Name="connectivity" format="ascii" RangeMin="1e+299" RangeMax="-1e+299">
        </DataArray>
        <DataArray type="Int64" Name="offsets" format="ascii" RangeMin="1e+299" RangeMax="-1e+299">
        </DataArray>
      </Lines>
      <Strips>
        <DataArray type="Int64" Name="connectivity" format="ascii" RangeMin="1e+299" RangeMax="-1e+299">
        </DataArray>
        <DataArray type="Int64" Name="offsets" format="ascii" RangeMin="1e+299" RangeMax="-1e+299">
        </DataArray>
      </Strips>
      <Polys>
        <DataArray type="Int64" Name="connectivity" format="ascii" RangeMin="0" RangeMax="63">
          0 2 3 4 6 7
          2 5 3 4 1 0
          8 2 1 6 11 7
          9 6 2 7 8 1
          8 13 9 11 14 15
          13 10 9 11 12 8
          16 13 12 14 19 15
          17 14 13 15 16 12
          16 21 17 19 22 23
          21 18 17 19 20 16
          24 21 20 22 27 23
          25 22 21 23 24 20
          24 29 25 27 30 31
          29 26 25 27 28 24
          32 29 28 30 35 31
          33 30 29 31 32 28
          32 37 33 35 38 39
          37 34 33 35 36 32
          40 37 36 38 43 39
          41 38 37 39 40 36
          44 41 40 42 47 43
          45 42 41 43 44 40
          44 49 45 47 50 51
          49 46 45 47 48 44
          52 49 48 50 55 51
          53 50 49 51 52 48
          52 57 53 55 58 59
          57 54 53 55 56 52
          60 57 56 58 63 59
          61 58 57 59 60 56
          60 3 61 63 5 4
          3 62 61 63 0 60
          2 0 1 6 4 5
          5 2 6 1 4 7
          2 8 9 11 6 10
          6 9 10 8 7 11
          13 8 12 14 11 10
          10 13 14 12 11 15
          13 16 17 19 14 18
          14 17 18 16 15 19
          21 16 20 22 19 18
          18 21 22 20 19 23
          21 24 25 27 22 26
          22 25 26 24 23 27
          29 24 28 30 27 26
          26 29 30 28 27 31
          29 32 33 35 30 34
          30 33 34 32 31 35
          37 32 36 38 35 34
          34 37 38 36 35 39
          37 40 41 43 38 42
          38 41 42 40 39 43
          41 44 45 47 42 46
          42 45 46 44 43 47
          49 44 48 50 47 46
          46 49 50 48 47 51
          49 52 53 55 50 54
          50 53 54 52 51 55
          57 52 56 58 55 54
          54 57 58 56 55 59
          57 60 61 63 58 62
          58 61 62 60 59 63
          3 60 0 5 63 62
          62 3 5 0 63 4
        </DataArray>
        <DataArray type="Int64" Name="offsets" format="ascii" RangeMin="3" RangeMax="384">
          3 6 9 12 15 18
          21 24 27 30 33 36
          39 42 45 48 51 54
          57 60 63 66 69 72
          75 78 81 84 87 90
          93 96 99 102 105 108
          111 114 117 120 123 126
          129 132 135 138 141 144
          147 150 153 156 159 162
          165 168 171 174 177 180
          183 186 189 192 195 198
          201 204 207 210 213 216
          219 222 225 228 231 234
          237 240 243 246 249 252
          255 258 261 264 267 270
          273 276 279 282 285 288
          291 294 297 300 303 306
          309 312 315 318 321 324
          327 330 333 336 339 342
          345 348 351 354 357 360
          363 366 369 372 375 378
          381 384
        </DataArray>
      </Polys>
    </Piece>
  </PolyData>
</VTKFile>
